
165 atoms
4 atom types
62 bonds
1 bond types
31 angles
1 angle types
0.000000 15.000000 xlo xhi
0.000000 13.000000 ylo yhi
0.000000 11.370000 zlo zhi

Atoms

  1  1  2  0.00    0.00000    0.00000    0.00000
  2  1  3  0.00   -1.25227    0.72300    0.00000
  3  1  2  0.00   -1.25227    2.16900    0.00000
  4  1  3  0.00    0.00000    2.89200    0.00000
  5  1  2  0.00    2.50454    0.00000    0.00000
  6  1  3  0.00    1.25227    0.72300    0.00000
  7  1  2  0.00    1.25227    2.16900    0.00000
  8  1  3  0.00    2.50454    2.89200    0.00000
  9  1  2  0.00    5.00909    0.00000    0.00000
 10  1  3  0.00    3.75682    0.72300    0.00000
 11  1  2  0.00    3.75682    2.16900    0.00000
 12  1  3  0.00    5.00909    2.89200    0.00000
 13  1  2  0.00    7.51364    0.00000    0.00000
 14  1  3  0.00    6.26136    0.72300    0.00000
 15  1  2  0.00    6.26136    2.16900    0.00000
 16  1  3  0.00    7.51364    2.89200    0.00000
 17  1  2  0.00   10.01818    0.00000    0.00000
 18  1  3  0.00    8.76591    0.72300    0.00000
 19  1  2  0.00    8.76591    2.16900    0.00000
 20  1  3  0.00   10.01818    2.89200    0.00000
 21  1  2  0.00   12.52273    0.00000    0.00000
 22  1  3  0.00   11.27045    0.72300    0.00000
 23  1  2  0.00   11.27045    2.16900    0.00000
 24  1  3  0.00   12.52273    2.89200    0.00000
 25  1  2  0.00    0.00000    4.33800    0.00000
 26  1  3  0.00   -1.25227    5.06100    0.00000
 27  1  2  0.00   -1.25227    6.50700    0.00000
 28  1  3  0.00    0.00000    7.23000    0.00000
 29  1  2  0.00    2.50454    4.33800    0.00000
 30  1  3  0.00    1.25227    5.06100    0.00000
 31  1  2  0.00    1.25227    6.50700    0.00000
 32  1  3  0.00    2.50454    7.23000    0.00000
 33  1  2  0.00    5.00909    4.33800    0.00000
 34  1  3  0.00    3.75682    5.06100    0.00000
 35  1  2  0.00    3.75682    6.50700    0.00000
 36  1  3  0.00    5.00909    7.23000    0.00000
 37  1  2  0.00    7.51364    4.33800    0.00000
 38  1  3  0.00    6.26136    5.06100    0.00000
 39  1  2  0.00    6.26136    6.50700    0.00000
 40  1  3  0.00    7.51364    7.23000    0.00000
 41  1  2  0.00   10.01818    4.33800    0.00000
 42  1  3  0.00    8.76591    5.06100    0.00000
 43  1  2  0.00    8.76591    6.50700    0.00000
 44  1  3  0.00   10.01818    7.23000    0.00000
 45  1  2  0.00   12.52273    4.33800    0.00000
 46  1  3  0.00   11.27045    5.06100    0.00000
 47  1  2  0.00   11.27045    6.50700    0.00000
 48  1  3  0.00   12.52273    7.23000    0.00000
 49  1  2  0.00    0.00000    8.67600    0.00000
 50  1  3  0.00   -1.25227    9.39900    0.00000
 51  1  2  0.00   -1.25227   10.84500    0.00000
 52  1  3  0.00    0.00000   11.56800    0.00000
 53  1  2  0.00    2.50454    8.67600    0.00000
 54  1  3  0.00    1.25227    9.39900    0.00000
 55  1  2  0.00    1.25227   10.84500    0.00000
 56  1  3  0.00    2.50454   11.56800    0.00000
 57  1  2  0.00    5.00909    8.67600    0.00000
 58  1  3  0.00    3.75682    9.39900    0.00000
 59  1  2  0.00    3.75682   10.84500    0.00000
 60  1  3  0.00    5.00909   11.56800    0.00000
 61  1  2  0.00    7.51364    8.67600    0.00000
 62  1  3  0.00    6.26136    9.39900    0.00000
 63  1  2  0.00    6.26136   10.84500    0.00000
 64  1  3  0.00    7.51364   11.56800    0.00000
 65  1  2  0.00   10.01818    8.67600    0.00000
 66  1  3  0.00    8.76591    9.39900    0.00000
 67  1  2  0.00    8.76591   10.84500    0.00000
 68  1  3  0.00   10.01818   11.56800    0.00000
 69  1  2  0.00   12.52273    8.67600    0.00000
 70  1  3  0.00   11.27045    9.39900    0.00000
 71  1  2  0.00   11.27045   10.84500    0.00000
 72  1  3  0.00   12.52273   11.56800    0.00000
 73  2  4  0.00    4.93500    7.87600    5.19100
 74  2  1  0.00    4.70900    7.09800    4.63400
 75  2  1  0.00    4.47200    7.76600    6.01800
 76  3  4  0.00    3.82300    5.58100    3.82700
 77  3  1  0.00    3.18300    5.75300    3.14800
 78  3  1  0.00    3.38900    5.06100    4.53400
 79  4  4  0.00    4.07800    6.96700    7.73400
 80  4  1  0.00    3.22800    6.56100    7.99300
 81  4  1  0.00    4.51200    7.19400    8.56000
 82  5  4  0.00    6.17700    4.61000    2.92800
 83  5  1  0.00    5.44300    5.17200    3.05300
 84  5  1  0.00    5.86600    3.78800    3.29800
 85  6  4  0.00    5.29500    9.06600    9.32000
 86  6  1  0.00    5.59200    9.06700   10.22600
 87  6  1  0.00    4.32200    9.22600    9.35000
 88  7  4  0.00   10.02700    6.24900    4.80600
 89  7  1  0.00   10.63600    5.95300    4.10400
 90  7  1  0.00    9.92900    7.19400    4.54500
 91  8  4  0.00   11.09600    3.40500    5.62800
 92  8  1  0.00   11.08500    4.39000    5.71500
 93  8  1  0.00   11.07700    3.34800    4.62100
 94  9  4  0.00    7.79300    8.36400    7.16800
 95  9  1  0.00    7.78700    8.54800    6.22300
 96  9  1  0.00    6.99500    8.79400    7.39900
 97 10  4  0.00    1.66700    2.54700    4.64600
 98 10  1  0.00    1.10300    1.97500    5.29600
 99 10  1  0.00    2.55800    2.29200    5.04600
100 11  4  0.00    7.33600    9.90500    4.35000
101 11  1  0.00    6.84900   10.58800    3.88300
102 11  1  0.00    6.56800    9.37500    4.77000
103 12  4  0.00   10.42700    8.89900    8.41800
104 12  1  0.00   10.59800    9.70300    8.91500
105 12  1  0.00    9.56900    9.03200    7.99400
106 13  4  0.00    5.55000    4.54400    6.31500
107 13  1  0.00    5.05500    5.34300    6.39600
108 13  1  0.00    6.46000    4.84600    6.33700
109 14  4  0.00   12.93100    9.37200    6.59400
110 14  1  0.00   12.01000    9.42400    6.28700
111 14  1  0.00   12.92600    9.95600    7.39900
112 15  4  0.00    8.53300    5.55000    2.16000
113 15  1  0.00    7.60800    5.30900    2.49000
114 15  1  0.00    9.00800    5.94000    2.92500
115 16  4  0.00    9.69100    8.81700    4.05000
116 16  1  0.00   10.16200    9.37200    3.38500
117 16  1  0.00    8.82100    9.25000    4.11300
118 17  4  0.00   12.34700    1.89400    7.71000
119 17  1  0.00   12.03500    2.28100    6.93100
120 17  1  0.00   12.68800    1.04700    7.38600
121 18  4  0.00   10.81100   10.28900    2.20000
122 18  1  0.00   10.61400    9.96900    1.30900
123 18  1  0.00   11.02400   11.19800    1.98700
124 19  4  0.00    8.03900    5.51100    6.77700
125 19  1  0.00    8.82500    5.58900    6.28200
126 19  1  0.00    7.88300    6.47300    6.91600
127 20  4  0.00    8.87000    2.47400    7.18700
128 20  1  0.00    8.20900    3.07300    7.63300
129 20  1  0.00    9.45700    3.02900    6.65900
130 21  4  0.00   13.33800    5.97000    5.11900
131 21  1  0.00   14.08800    5.56300    5.53200
132 21  1  0.00   13.31100    5.59100    4.21700
133 22  4  0.00    5.40700    1.64900    3.88800
134 22  1  0.00    4.81000    2.21500    4.38600
135 22  1  0.00    6.07700    1.41700    4.54700
136 23  4  0.00   12.81700    7.76000    2.42200
137 23  1  0.00   13.10600    7.66000    3.38800
138 23  1  0.00   12.16000    8.48300    2.44700
139 24  4  0.00   13.39500   10.46600    9.21500
140 24  1  0.00   14.24900    9.98800    9.06600
141 24  1  0.00   13.04300   10.10000   10.02500
142 25  4  0.00   12.51700    6.85800    8.01000
143 25  1  0.00   12.64000    6.77300    7.03900
144 25  1  0.00   12.28900    7.78100    8.13000
145 26  4  0.00    3.90000    2.31000    6.29000
146 26  1  0.00    3.73900    1.70600    7.07800
147 26  1  0.00    4.55500    3.00300    6.53100
148 27  4  0.00    7.41400    4.00400    8.90900
149 27  1  0.00    6.52300    3.93100    9.18400
150 27  1  0.00    7.37500    4.76600    8.28600
151 28  4  0.00   11.50800    4.57800    2.68100
152 28  1  0.00   11.24400    4.03800    1.93400
153 28  1  0.00   12.30400    5.02100    2.51600
154 29  4  0.00    2.88900   11.99700    9.36000
155 29  1  0.00    2.93500   12.18100    8.35800
156 29  1  0.00    3.60200   12.56200    9.73400
157 30  4  0.00    4.01600   10.69000    4.48500
158 30  1  0.00    4.15800    9.76900    4.70100
159 30  1  0.00    3.53700   10.55400    3.65200
160 31  4  0.00    2.83400    9.40800    2.52700
161 31  1  0.00    2.10500    9.71700    1.99300
162 31  1  0.00    3.19400    8.71400    1.92600
163 32  4  0.00    2.28700    5.17200    8.81500
164 32  1  0.00    1.63100    4.47300    9.07700
165 32  1  0.00    3.11900    4.66900    8.85200


Bonds

1 1 73 74
2 1 73 75
3 1 76 77
4 1 76 78
5 1 79 80
6 1 79 81
7 1 82 83
8 1 82 84
9 1 85 86
10 1 85 87
11 1 88 89
12 1 88 90
13 1 91 92
14 1 91 93
15 1 94 95
16 1 94 96
17 1 97 98
18 1 97 99
19 1 100 101
20 1 100 102
21 1 103 104
22 1 103 105
23 1 106 107
24 1 106 108
25 1 109 110
26 1 109 111
27 1 112 113
28 1 112 114
29 1 115 116
30 1 115 117
31 1 118 119
32 1 118 120
33 1 121 122
34 1 121 123
35 1 124 125
36 1 124 126
37 1 127 128
38 1 127 129
39 1 130 131
40 1 130 132
41 1 133 134
42 1 133 135
43 1 136 137
44 1 136 138
45 1 139 140
46 1 139 141
47 1 142 143
48 1 142 144
49 1 145 146
50 1 145 147
51 1 148 149
52 1 148 150
53 1 151 152
54 1 151 153
55 1 154 155
56 1 154 156
57 1 157 158
58 1 157 159
59 1 160 161
60 1 160 162
61 1 163 164
62 1 163 165


Angles

1 1 74 73 75
2 1 77 76 78
3 1 80 79 81
4 1 83 82 84
5 1 86 85 87
6 1 89 88 90
7 1 92 91 93
8 1 95 94 96
9 1 98 97 99
10 1 101 100 102
11 1 104 103 105
12 1 107 106 108
13 1 110 109 111
14 1 113 112 114
15 1 116 115 117
16 1 119 118 120
17 1 122 121 123
18 1 125 124 126
19 1 128 127 129
20 1 131 130 132
21 1 134 133 135
22 1 137 136 138
23 1 140 139 141
24 1 143 142 144
25 1 146 145 147
26 1 149 148 150
27 1 152 151 153
28 1 155 154 156
29 1 158 157 159
30 1 161 160 162
31 1 164 163 165
